    2    2  100    1
  0.5000000E+03  0.1000000E-08  0.1000000E-08  0.1000000E-08  0.5000000E-15
   1.0000000000000000E-004
  CAR 
 CO                                      
     10      1     10

  0.1262379E-14  0.1262379E-14  0.1262379E-14  0.1000000E+01
    1      -32.186826   1.000000
    2      -15.689711   1.000000
    3      -12.956668   1.000000
    4      -12.956667   1.000000
    5      -10.192438   1.000000
    6       -1.048337   0.000000
    7       -1.048336   0.000000
    8       -0.141665   0.000000
    9        1.172259   0.000000
   10        1.291492   0.000000
