    3    3  100    2
  0.3333333E+03  0.1000000E-08  0.1000000E-08  0.1000000E-08  0.5000000E-15
   1.0000000000000000E-004
  CAR 
 CO                                      
     12      1     12

  0.1262379E-14  0.1262379E-14  0.1262379E-14  0.1000000E+01
    1      -23.977871    -23.883925   1.000000   1.000000
    2      -11.884335    -11.762068   1.000000   1.000000
    3       -8.716470     -8.588181   1.000000   1.000000
    4       -7.463972     -7.412160   1.000000   1.000000
    5       -6.666662     -6.438946   1.000000   1.000000
    6       -1.918408     -1.602587   1.000000   1.000000
    7       -1.308661     -1.456853   0.000000   0.000000
    8       -0.230664     -0.175998   0.000000   0.000000
    9        0.090272     -0.039856   0.000000   0.000000
   10        0.122898      0.017787   0.000000   0.000000
   11        0.181764      0.051551   0.000000   0.000000
   12        0.213584      0.103886   0.000000   0.000000
