   2    2    1    1
  1.0000000e+03   1.0000000e-09   1.0000000e-09   1.0000000e-09   5.0000000e-16
            1.000000e-04
  CAR
 DOS and projected DOS file by LOBSTER. Energy is shifted such that the Fermi level lies at 0 eV. 
     -0.12604847     -40.17611104   801     -10.13856411       1.00000000
-30.03755   0.00000   0.00000
-29.98748   0.00000   0.00000
-29.93742   0.00000   0.00000
-29.88736   0.00000   0.00000
-29.83730   0.00000   0.00000
-29.78723   0.00000   0.00000
-29.73717   0.00000   0.00000
-29.68711   0.00000   0.00000
-29.63705   0.00000   0.00000
-29.58698   0.00000   0.00000
-29.53692   0.00000   0.00000
-29.48686   0.00000   0.00000
-29.43680   0.00000   0.00000
-29.38673   0.00000   0.00000
-29.33667   0.00000   0.00000
-29.28661   0.00000   0.00000
-29.23655   0.00000   0.00000
-29.18648   0.00000   0.00000
-29.13642   0.00000   0.00000
-29.08636   0.00000   0.00000
-29.03630   0.00000   0.00000
-28.98623   0.00000   0.00000
-28.93617   0.00000   0.00000
-28.88611   0.00000   0.00000
-28.83605   0.00000   0.00000
-28.78598   0.00000   0.00000
-28.73592   0.00000   0.00000
-28.68586   0.00000   0.00000
-28.63579   0.00000   0.00000
-28.58573   0.00000   0.00000
-28.53567   0.00000   0.00000
-28.48561   0.00000   0.00000
-28.43554   0.00000   0.00000
-28.38548   0.00000   0.00000
-28.33542   0.00000   0.00000
-28.28536   0.00000   0.00000
-28.23529   0.00000   0.00000
-28.18523   0.00000   0.00000
-28.13517   0.00000   0.00000
-28.08511   0.00000   0.00000
-28.03504   0.00000   0.00000
-27.98498   0.00000   0.00000
-27.93492   0.00000   0.00000
-27.88486   0.00000   0.00000
-27.83479   0.00000   0.00000
-27.78473   0.00000   0.00000
-27.73467   0.00000   0.00000
-27.68461   0.00000   0.00000
-27.63454   0.00000   0.00000
-27.58448   0.00000   0.00000
-27.53442   0.00000   0.00000
-27.48436   0.00000   0.00000
-27.43429   0.00000   0.00000
-27.38423   0.00000   0.00000
-27.33417   0.00000   0.00000
-27.28411   0.00000   0.00000
-27.23404   0.00000   0.00000
-27.18398   0.00000   0.00000
-27.13392   0.00000   0.00000
-27.08385   0.00000   0.00000
-27.03379   0.00000   0.00000
-26.98373   0.00000   0.00000
-26.93367   0.00000   0.00000
-26.88360   0.00000   0.00000
-26.83354   0.00000   0.00000
-26.78348   0.00000   0.00000
-26.73342   0.00000   0.00000
-26.68335   0.00000   0.00000
-26.63329   0.00000   0.00000
-26.58323   0.00000   0.00000
-26.53317   0.00000   0.00000
-26.48310   0.00000   0.00000
-26.43304   0.00000   0.00000
-26.38298   0.00000   0.00000
-26.33292   0.00000   0.00000
-26.28285   0.00000   0.00000
-26.23279   0.00000   0.00000
-26.18273   0.00000   0.00000
-26.13267   0.00000   0.00000
-26.08260   0.00000   0.00000
-26.03254   0.00000   0.00000
-25.98248   0.00000   0.00000
-25.93242   0.00000   0.00000
-25.88235   0.00000   0.00000
-25.83229   0.00000   0.00000
-25.78223   0.00000   0.00000
-25.73217   0.00000   0.00000
-25.68210   0.00000   0.00000
-25.63204   0.00000   0.00000
-25.58198   0.00000   0.00000
-25.53191   0.00000   0.00000
-25.48185   0.00000   0.00000
-25.43179   0.00000   0.00000
-25.38173   0.00000   0.00000
-25.33166   0.00000   0.00000
-25.28160   0.00000   0.00000
-25.23154   0.00000   0.00000
-25.18148   0.00000   0.00000
-25.13141   0.00000   0.00000
-25.08135   0.00000   0.00000
-25.03129   0.00000   0.00000
-24.98123   0.00000   0.00000
-24.93116   0.00000   0.00000
-24.88110   0.00000   0.00000
-24.83104   0.00000   0.00000
-24.78098   0.00000   0.00000
-24.73091   0.00000   0.00000
-24.68085   0.00000   0.00000
-24.63079   0.00000   0.00000
-24.58073   0.00000   0.00000
-24.53066   0.00000   0.00000
-24.48060   0.00000   0.00000
-24.43054   0.00000   0.00000
-24.38048   0.00000   0.00000
-24.33041   0.00000   0.00000
-24.28035   0.00000   0.00000
-24.23029   0.00000   0.00000
-24.18023   0.00000   0.00000
-24.13016   0.00000   0.00000
-24.08010   0.00000   0.00000
-24.03004   0.00000   0.00000
-23.97997   0.00000   0.00000
-23.92991   0.00000   0.00000
-23.87985   0.00000   0.00000
-23.82979   0.00000   0.00000
-23.77972   0.00000   0.00000
-23.72966   0.00000   0.00000
-23.67960   0.00000   0.00000
-23.62954   0.00000   0.00000
-23.57947   0.00000   0.00000
-23.52941   0.00000   0.00000
-23.47935   0.00000   0.00000
-23.42929   0.00000   0.00000
-23.37922   0.00000   0.00000
-23.32916   0.00000   0.00000
-23.27910   0.00000   0.00000
-23.22904   0.00000   0.00000
-23.17897   0.00000   0.00000
-23.12891   0.00000   0.00000
-23.07885   0.00000   0.00000
-23.02879   0.00000   0.00000
-22.97872   0.00000   0.00000
-22.92866   0.00000   0.00000
-22.87860   0.00000   0.00000
-22.82854   0.00000   0.00000
-22.77847   0.00000   0.00000
-22.72841   0.00003   0.00000
-22.67835   0.00014   0.00001
-22.62829   0.00065   0.00004
-22.57822   0.00275   0.00018
-22.52816   0.01021   0.00069
-22.47810   0.03354   0.00237
-22.42804   0.09730   0.00724
-22.37797   0.24933   0.01972
-22.32791   0.56434   0.04797
-22.27785   1.12833   0.10446
-22.22778   1.99280   0.20423
-22.17772   3.10905   0.35987
-22.12766   4.28480   0.57438
-22.07760   5.21644   0.83553
-22.02753   5.60997   1.11638
-21.97747   5.32955   1.38319
-21.92741   4.47263   1.60710
-21.87735   3.31571   1.77309
-21.82728   2.17135   1.88180
-21.77722   1.25608   1.94468
-21.72716   0.64186   1.97681
-21.67710   0.28973   1.99132
-21.62703   0.11552   1.99710
-21.57697   0.04069   1.99914
-21.52691   0.01266   1.99977
-21.47685   0.00348   1.99995
-21.42678   0.00084   1.99999
-21.37672   0.00018   2.00000
-21.32666   0.00003   2.00000
-21.27660   0.00001   2.00000
-21.22653   0.00000   2.00000
-21.17647   0.00000   2.00000
-21.12641   0.00000   2.00000
-21.07635   0.00000   2.00000
-21.02628   0.00000   2.00000
-20.97622   0.00000   2.00000
-20.92616   0.00000   2.00000
-20.87610   0.00000   2.00000
-20.82603   0.00000   2.00000
-20.77597   0.00000   2.00000
-20.72591   0.00000   2.00000
-20.67584   0.00000   2.00000
-20.62578   0.00000   2.00000
-20.57572   0.00000   2.00000
-20.52566   0.00000   2.00000
-20.47559   0.00000   2.00000
-20.42553   0.00000   2.00000
-20.37547   0.00000   2.00000
-20.32541   0.00000   2.00000
-20.27534   0.00000   2.00000
-20.22528   0.00000   2.00000
-20.17522   0.00000   2.00000
-20.12516   0.00000   2.00000
-20.07509   0.00000   2.00000
-20.02503   0.00000   2.00000
-19.97497   0.00000   2.00000
-19.92491   0.00000   2.00000
-19.87484   0.00000   2.00000
-19.82478   0.00000   2.00000
-19.77472   0.00000   2.00000
-19.72466   0.00000   2.00000
-19.67459   0.00000   2.00000
-19.62453   0.00000   2.00000
-19.57447   0.00000   2.00000
-19.52441   0.00000   2.00000
-19.47434   0.00000   2.00000
-19.42428   0.00000   2.00000
-19.37422   0.00000   2.00000
-19.32416   0.00000   2.00000
-19.27409   0.00000   2.00000
-19.22403   0.00000   2.00000
-19.17397   0.00000   2.00000
-19.12390   0.00000   2.00000
-19.07384   0.00000   2.00000
-19.02378   0.00000   2.00000
-18.97372   0.00000   2.00000
-18.92365   0.00000   2.00000
-18.87359   0.00000   2.00000
-18.82353   0.00000   2.00000
-18.77347   0.00000   2.00000
-18.72340   0.00000   2.00000
-18.67334   0.00000   2.00000
-18.62328   0.00000   2.00000
-18.57322   0.00000   2.00000
-18.52315   0.00000   2.00000
-18.47309   0.00000   2.00000
-18.42303   0.00000   2.00000
-18.37297   0.00000   2.00000
-18.32290   0.00000   2.00000
-18.27284   0.00000   2.00000
-18.22278   0.00000   2.00000
-18.17272   0.00000   2.00000
-18.12265   0.00000   2.00000
-18.07259   0.00000   2.00000
-18.02253   0.00000   2.00000
-17.97247   0.00000   2.00000
-17.92240   0.00000   2.00000
-17.87234   0.00000   2.00000
-17.82228   0.00000   2.00000
-17.77222   0.00000   2.00000
-17.72215   0.00000   2.00000
-17.67209   0.00000   2.00000
-17.62203   0.00000   2.00000
-17.57196   0.00000   2.00000
-17.52190   0.00000   2.00000
-17.47184   0.00000   2.00000
-17.42178   0.00000   2.00000
-17.37171   0.00000   2.00000
-17.32165   0.00000   2.00000
-17.27159   0.00000   2.00000
-17.22153   0.00000   2.00000
-17.17146   0.00000   2.00000
-17.12140   0.00000   2.00000
-17.07134   0.00000   2.00000
-17.02128   0.00000   2.00000
-16.97121   0.00000   2.00000
-16.92115   0.00000   2.00000
-16.87109   0.00000   2.00000
-16.82103   0.00000   2.00000
-16.77096   0.00000   2.00000
-16.72090   0.00000   2.00000
-16.67084   0.00000   2.00000
-16.62078   0.00000   2.00000
-16.57071   0.00000   2.00000
-16.52065   0.00000   2.00000
-16.47059   0.00000   2.00000
-16.42053   0.00000   2.00000
-16.37046   0.00000   2.00000
-16.32040   0.00000   2.00000
-16.27034   0.00000   2.00000
-16.22028   0.00000   2.00000
-16.17021   0.00000   2.00000
-16.12015   0.00000   2.00000
-16.07009   0.00000   2.00000
-16.02003   0.00000   2.00000
-15.96996   0.00000   2.00000
-15.91990   0.00000   2.00000
-15.86984   0.00000   2.00000
-15.81977   0.00000   2.00000
-15.76971   0.00000   2.00000
-15.71965   0.00000   2.00000
-15.66959   0.00000   2.00000
-15.61952   0.00000   2.00000
-15.56946   0.00000   2.00000
-15.51940   0.00000   2.00000
-15.46934   0.00000   2.00000
-15.41927   0.00000   2.00000
-15.36921   0.00000   2.00000
-15.31915   0.00000   2.00000
-15.26909   0.00000   2.00000
-15.21902   0.00000   2.00000
-15.16896   0.00000   2.00000
-15.11890   0.00000   2.00000
-15.06884   0.00000   2.00000
-15.01877   0.00000   2.00000
-14.96871   0.00000   2.00000
-14.91865   0.00000   2.00000
-14.86859   0.00000   2.00000
-14.81852   0.00000   2.00000
-14.76846   0.00000   2.00000
-14.71840   0.00000   2.00000
-14.66834   0.00000   2.00000
-14.61827   0.00000   2.00000
-14.56821   0.00000   2.00000
-14.51815   0.00000   2.00000
-14.46809   0.00000   2.00000
-14.41802   0.00000   2.00000
-14.36796   0.00000   2.00000
-14.31790   0.00000   2.00000
-14.26783   0.00000   2.00000
-14.21777   0.00000   2.00000
-14.16771   0.00000   2.00000
-14.11765   0.00000   2.00000
-14.06758   0.00000   2.00000
-14.01752   0.00000   2.00000
-13.96746   0.00000   2.00000
-13.91740   0.00000   2.00000
-13.86733   0.00000   2.00000
-13.81727   0.00000   2.00000
-13.76721   0.00000   2.00000
-13.71715   0.00000   2.00000
-13.66708   0.00000   2.00000
-13.61702   0.00000   2.00000
-13.56696   0.00000   2.00000
-13.51690   0.00000   2.00000
-13.46683   0.00000   2.00000
-13.41677   0.00000   2.00000
-13.36671   0.00000   2.00000
-13.31665   0.00000   2.00000
-13.26658   0.00000   2.00000
-13.21652   0.00000   2.00000
-13.16646   0.00000   2.00000
-13.11640   0.00000   2.00000
-13.06633   0.00000   2.00000
-13.01627   0.00000   2.00000
-12.96621   0.00000   2.00000
-12.91615   0.00000   2.00000
-12.86608   0.00000   2.00000
-12.81602   0.00000   2.00000
-12.76596   0.00000   2.00000
-12.71589   0.00000   2.00000
-12.66583   0.00000   2.00000
-12.61577   0.00000   2.00000
-12.56571   0.00000   2.00000
-12.51564   0.00000   2.00000
-12.46558   0.00000   2.00000
-12.41552   0.00000   2.00000
-12.36546   0.00000   2.00000
-12.31539   0.00000   2.00000
-12.26533   0.00000   2.00000
-12.21527   0.00000   2.00000
-12.16521   0.00000   2.00000
-12.11514   0.00000   2.00000
-12.06508   0.00000   2.00000
-12.01502   0.00000   2.00000
-11.96496   0.00000   2.00000
-11.91489   0.00000   2.00000
-11.86483   0.00000   2.00000
-11.81477   0.00000   2.00000
-11.76471   0.00000   2.00000
-11.71464   0.00000   2.00000
-11.66458   0.00000   2.00000
-11.61452   0.00000   2.00000
-11.56446   0.00000   2.00000
-11.51439   0.00000   2.00000
-11.46433   0.00000   2.00000
-11.41427   0.00000   2.00000
-11.36421   0.00000   2.00000
-11.31414   0.00000   2.00000
-11.26408   0.00000   2.00000
-11.21402   0.00000   2.00000
-11.16395   0.00000   2.00000
-11.11389   0.00000   2.00000
-11.06383   0.00000   2.00000
-11.01377   0.00000   2.00000
-10.96370   0.00000   2.00000
-10.91364   0.00000   2.00000
-10.86358   0.00000   2.00000
-10.81352   0.00000   2.00000
-10.76345   0.00000   2.00000
-10.71339   0.00000   2.00000
-10.66333   0.00000   2.00000
-10.61327   0.00000   2.00000
-10.56320   0.00000   2.00000
-10.51314   0.00000   2.00000
-10.46308   0.00000   2.00000
-10.41302   0.00000   2.00000
-10.36295   0.00000   2.00000
-10.31289   0.00000   2.00000
-10.26283   0.00000   2.00000
-10.21277   0.00000   2.00000
-10.16270   0.00000   2.00000
-10.11264   0.00000   2.00000
-10.06258   0.00000   2.00000
-10.01252   0.00000   2.00000
 -9.96245   0.00000   2.00000
 -9.91239   0.00000   2.00000
 -9.86233   0.00000   2.00000
 -9.81227   0.00000   2.00000
 -9.76220   0.00000   2.00000
 -9.71214   0.00000   2.00000
 -9.66208   0.00000   2.00000
 -9.61202   0.00000   2.00000
 -9.56195   0.00000   2.00000
 -9.51189   0.00000   2.00000
 -9.46183   0.00000   2.00000
 -9.41176   0.00000   2.00000
 -9.36170   0.00000   2.00000
 -9.31164   0.00000   2.00000
 -9.26158   0.00000   2.00000
 -9.21151   0.00000   2.00000
 -9.16145   0.00000   2.00000
 -9.11139   0.00000   2.00000
 -9.06133   0.00000   2.00000
 -9.01126   0.00000   2.00000
 -8.96120   0.00000   2.00000
 -8.91114   0.00000   2.00000
 -8.86108   0.00000   2.00000
 -8.81101   0.00000   2.00000
 -8.76095   0.00000   2.00000
 -8.71089   0.00000   2.00000
 -8.66083   0.00000   2.00000
 -8.61076   0.00000   2.00000
 -8.56070   0.00000   2.00000
 -8.51064   0.00000   2.00000
 -8.46058   0.00000   2.00000
 -8.41051   0.00000   2.00000
 -8.36045   0.00000   2.00000
 -8.31039   0.00000   2.00000
 -8.26033   0.00000   2.00000
 -8.21026   0.00000   2.00000
 -8.16020   0.00000   2.00000
 -8.11014   0.00000   2.00000
 -8.06008   0.00000   2.00000
 -8.01001   0.00000   2.00000
 -7.95995   0.00000   2.00000
 -7.90989   0.00000   2.00000
 -7.85982   0.00000   2.00000
 -7.80976   0.00000   2.00000
 -7.75970   0.00000   2.00000
 -7.70964   0.00000   2.00000
 -7.65957   0.00000   2.00000
 -7.60951   0.00000   2.00000
 -7.55945   0.00000   2.00000
 -7.50939   0.00000   2.00000
 -7.45932   0.00000   2.00000
 -7.40926   0.00000   2.00000
 -7.35920   0.00000   2.00000
 -7.30914   0.00000   2.00000
 -7.25907   0.00000   2.00000
 -7.20901   0.00000   2.00000
 -7.15895   0.00000   2.00000
 -7.10889   0.00000   2.00000
 -7.05882   0.00000   2.00000
 -7.00876   0.00000   2.00000
 -6.95870   0.00000   2.00000
 -6.90864   0.00000   2.00000
 -6.85857   0.00000   2.00000
 -6.80851   0.00000   2.00000
 -6.75845   0.00000   2.00000
 -6.70839   0.00000   2.00000
 -6.65832   0.00000   2.00000
 -6.60826   0.00000   2.00000
 -6.55820   0.00000   2.00000
 -6.50814   0.00000   2.00000
 -6.45807   0.00000   2.00000
 -6.40801   0.00000   2.00000
 -6.35795   0.00000   2.00000
 -6.30788   0.00000   2.00000
 -6.25782   0.00001   2.00000
 -6.20776   0.00006   2.00000
 -6.15770   0.00029   2.00002
 -6.10763   0.00130   2.00008
 -6.05757   0.00517   2.00034
 -6.00751   0.01815   2.00125
 -5.95745   0.05622   2.00407
 -5.90738   0.15384   2.01177
 -5.85732   0.37186   2.03038
 -5.80726   0.79396   2.07013
 -5.75720   1.49746   2.14510
 -5.70713   2.49484   2.27000
 -5.65707   3.67171   2.45381
 -5.60701   4.77347   2.69278
 -5.55695   5.48204   2.96723
 -5.50688   5.56151   3.24565
 -5.45682   4.98410   3.49517
 -5.40676   3.94568   3.69270
 -5.35670   2.75930   3.83084
 -5.30663   1.70456   3.91617
 -5.25657   0.93017   3.96274
 -5.20651   0.44838   3.98519
 -5.15645   0.19092   3.99474
 -5.10638   0.07181   3.99834
 -5.05632   0.02386   3.99953
 -5.00626   0.00700   3.99988
 -4.95620   0.00181   3.99997
 -4.90613   0.00042   3.99999
 -4.85607   0.00008   4.00000
 -4.80601   0.00002   4.00000
 -4.75594   0.00000   4.00000
 -4.70588   0.00000   4.00000
 -4.65582   0.00000   4.00000
 -4.60576   0.00000   4.00000
 -4.55569   0.00000   4.00000
 -4.50563   0.00000   4.00000
 -4.45557   0.00000   4.00000
 -4.40551   0.00000   4.00000
 -4.35544   0.00000   4.00000
 -4.30538   0.00000   4.00000
 -4.25532   0.00000   4.00000
 -4.20526   0.00000   4.00000
 -4.15519   0.00000   4.00000
 -4.10513   0.00000   4.00000
 -4.05507   0.00000   4.00000
 -4.00501   0.00000   4.00000
 -3.95494   0.00000   4.00000
 -3.90488   0.00000   4.00000
 -3.85482   0.00000   4.00000
 -3.80476   0.00000   4.00000
 -3.75469   0.00000   4.00000
 -3.70463   0.00000   4.00000
 -3.65457   0.00000   4.00000
 -3.60451   0.00000   4.00000
 -3.55444   0.00001   4.00000
 -3.50438   0.00004   4.00000
 -3.45432   0.00022   4.00001
 -3.40426   0.00109   4.00007
 -3.35419   0.00465   4.00030
 -3.30413   0.01754   4.00118
 -3.25407   0.05846   4.00411
 -3.20401   0.17216   4.01272
 -3.15394   0.44784   4.03514
 -3.10388   1.02902   4.08666
 -3.05382   2.08859   4.19122
 -3.00375   3.74466   4.37869
 -2.95369   5.93071   4.67559
 -2.90363   8.29735   5.09098
 -2.85357  10.25448   5.60435
 -2.80350  11.19515   6.16480
 -2.75344  10.79667   6.70531
 -2.70338   9.19797   7.16579
 -2.65332   6.92207   7.51232
 -2.60325   4.60172   7.74270
 -2.55319   2.70234   7.87798
 -2.50313   1.40183   7.94816
 -2.45307   0.64236   7.98032
 -2.40300   0.26001   7.99334
 -2.35294   0.09296   7.99799
 -2.30288   0.02936   7.99946
 -2.25282   0.00819   7.99987
 -2.20275   0.00202   7.99997
 -2.15269   0.00044   7.99999
 -2.10263   0.00008   8.00000
 -2.05257   0.00001   8.00000
 -2.00250   0.00000   8.00000
 -1.95244   0.00000   8.00000
 -1.90238   0.00000   8.00000
 -1.85232   0.00000   8.00000
 -1.80225   0.00000   8.00000
 -1.75219   0.00000   8.00000
 -1.70213   0.00000   8.00000
 -1.65207   0.00000   8.00000
 -1.60200   0.00000   8.00000
 -1.55194   0.00000   8.00000
 -1.50188   0.00000   8.00000
 -1.45181   0.00000   8.00000
 -1.40175   0.00000   8.00000
 -1.35169   0.00000   8.00000
 -1.30163   0.00000   8.00000
 -1.25156   0.00000   8.00000
 -1.20150   0.00000   8.00000
 -1.15144   0.00000   8.00000
 -1.10138   0.00000   8.00000
 -1.05131   0.00000   8.00000
 -1.00125   0.00000   8.00000
 -0.95119   0.00000   8.00000
 -0.90113   0.00000   8.00000
 -0.85106   0.00000   8.00000
 -0.80100   0.00000   8.00000
 -0.75094   0.00001   8.00000
 -0.70088   0.00008   8.00000
 -0.65081   0.00039   8.00002
 -0.60075   0.00171   8.00011
 -0.55069   0.00664   8.00044
 -0.50063   0.02275   8.00158
 -0.45056   0.06883   8.00503
 -0.40050   0.18392   8.01423
 -0.35044   0.43412   8.03597
 -0.30038   0.90515   8.08128
 -0.25031   1.66710   8.16474
 -0.20025   2.71231   8.30053
 -0.15019   3.89811   8.49568
 -0.10013   4.94890   8.74343
 -0.05006   5.55018   9.02129
  0.00000   5.49854   9.29656
  0.05006   4.81206   9.53746
  0.10013   3.72012   9.72370
  0.15019   2.54052   9.85089
  0.20025   1.53259   9.92761
  0.25031   0.81670   9.96850
  0.30038   0.38444   9.98774
  0.35044   0.15985   9.99575
  0.40050   0.05871   9.99868
  0.45056   0.01905   9.99964
  0.50063   0.00546   9.99991
  0.55069   0.00138   9.99998
  0.60075   0.00031  10.00000
  0.65081   0.00006  10.00000
  0.70088   0.00001  10.00000
  0.75094   0.00000  10.00000
  0.80100   0.00000  10.00000
  0.85106   0.00000  10.00000
  0.90113   0.00000  10.00000
  0.95119   0.00000  10.00000
  1.00125   0.00000  10.00000
  1.05131   0.00000  10.00000
  1.10138   0.00000  10.00000
  1.15144   0.00000  10.00000
  1.20150   0.00000  10.00000
  1.25156   0.00000  10.00000
  1.30163   0.00000  10.00000
  1.35169   0.00000  10.00000
  1.40175   0.00000  10.00000
  1.45181   0.00000  10.00000
  1.50188   0.00000  10.00000
  1.55194   0.00000  10.00000
  1.60200   0.00000  10.00000
  1.65207   0.00000  10.00000
  1.70213   0.00000  10.00000
  1.75219   0.00000  10.00000
  1.80225   0.00000  10.00000
  1.85232   0.00000  10.00000
  1.90238   0.00000  10.00000
  1.95244   0.00000  10.00000
  2.00250   0.00000  10.00000
  2.05257   0.00000  10.00000
  2.10263   0.00000  10.00000
  2.15269   0.00000  10.00000
  2.20275   0.00000  10.00000
  2.25282   0.00000  10.00000
  2.30288   0.00000  10.00000
  2.35294   0.00000  10.00000
  2.40300   0.00000  10.00000
  2.45307   0.00000  10.00000
  2.50313   0.00000  10.00000
  2.55319   0.00000  10.00000
  2.60325   0.00000  10.00000
  2.65332   0.00000  10.00000
  2.70338   0.00000  10.00000
  2.75344   0.00000  10.00000
  2.80350   0.00000  10.00000
  2.85357   0.00000  10.00000
  2.90363   0.00000  10.00000
  2.95369   0.00000  10.00000
  3.00375   0.00000  10.00000
  3.05382   0.00000  10.00000
  3.10388   0.00000  10.00000
  3.15394   0.00000  10.00000
  3.20401   0.00000  10.00000
  3.25407   0.00000  10.00000
  3.30413   0.00000  10.00000
  3.35419   0.00000  10.00000
  3.40426   0.00000  10.00000
  3.45432   0.00000  10.00000
  3.50438   0.00000  10.00000
  3.55444   0.00000  10.00000
  3.60451   0.00000  10.00000
  3.65457   0.00000  10.00000
  3.70463   0.00000  10.00000
  3.75469   0.00000  10.00000
  3.80476   0.00000  10.00000
  3.85482   0.00000  10.00000
  3.90488   0.00000  10.00000
  3.95494   0.00000  10.00000
  4.00501   0.00000  10.00000
  4.05507   0.00000  10.00000
  4.10513   0.00000  10.00000
  4.15519   0.00000  10.00000
  4.20526   0.00000  10.00000
  4.25532   0.00000  10.00000
  4.30538   0.00000  10.00000
  4.35544   0.00000  10.00000
  4.40551   0.00000  10.00000
  4.45557   0.00000  10.00000
  4.50563   0.00000  10.00000
  4.55569   0.00000  10.00000
  4.60576   0.00000  10.00000
  4.65582   0.00000  10.00000
  4.70588   0.00000  10.00000
  4.75594   0.00000  10.00000
  4.80601   0.00000  10.00000
  4.85607   0.00000  10.00000
  4.90613   0.00000  10.00000
  4.95620   0.00000  10.00000
  5.00626   0.00000  10.00000
  5.05632   0.00000  10.00000
  5.10638   0.00000  10.00000
  5.15645   0.00000  10.00000
  5.20651   0.00000  10.00000
  5.25657   0.00000  10.00000
  5.30663   0.00000  10.00000
  5.35670   0.00000  10.00000
  5.40676   0.00000  10.00000
  5.45682   0.00000  10.00000
  5.50688   0.00000  10.00000
  5.55695   0.00000  10.00000
  5.60701   0.00000  10.00000
  5.65707   0.00000  10.00000
  5.70713   0.00000  10.00000
  5.75720   0.00000  10.00000
  5.80726   0.00000  10.00000
  5.85732   0.00000  10.00000
  5.90738   0.00000  10.00000
  5.95745   0.00000  10.00000
  6.00751   0.00000  10.00000
  6.05757   0.00000  10.00000
  6.10763   0.00000  10.00000
  6.15770   0.00000  10.00000
  6.20776   0.00000  10.00000
  6.25782   0.00000  10.00000
  6.30788   0.00000  10.00000
  6.35795   0.00000  10.00000
  6.40801   0.00000  10.00000
  6.45807   0.00000  10.00000
  6.50814   0.00000  10.00000
  6.55820   0.00000  10.00000
  6.60826   0.00000  10.00000
  6.65832   0.00000  10.00000
  6.70839   0.00000  10.00000
  6.75845   0.00000  10.00000
  6.80851   0.00000  10.00000
  6.85857   0.00000  10.00000
  6.90864   0.00000  10.00000
  6.95870   0.00000  10.00000
  7.00876   0.00000  10.00000
  7.05882   0.00000  10.00000
  7.10889   0.00000  10.00000
  7.15895   0.00000  10.00000
  7.20901   0.00000  10.00000
  7.25907   0.00000  10.00000
  7.30914   0.00000  10.00000
  7.35920   0.00000  10.00000
  7.40926   0.00000  10.00000
  7.45932   0.00000  10.00000
  7.50939   0.00000  10.00000
  7.55945   0.00000  10.00000
  7.60951   0.00000  10.00000
  7.65957   0.00000  10.00000
  7.70964   0.00000  10.00000
  7.75970   0.00000  10.00000
  7.80976   0.00000  10.00000
  7.85982   0.00000  10.00000
  7.90989   0.00000  10.00000
  7.95995   0.00000  10.00000
  8.01001   0.00000  10.00000
  8.06008   0.00000  10.00000
  8.11014   0.00000  10.00000
  8.16020   0.00000  10.00000
  8.21026   0.00000  10.00000
  8.26033   0.00000  10.00000
  8.31039   0.00000  10.00000
  8.36045   0.00001  10.00000
  8.41051   0.00005  10.00000
  8.46058   0.00028  10.00002
  8.51064   0.00132  10.00008
  8.56070   0.00556  10.00036
  8.61076   0.02064  10.00139
  8.66083   0.06773  10.00479
  8.71089   0.19626  10.01461
  8.76095   0.50238  10.03976
  8.81101   1.13591  10.09663
  8.86108   2.26873  10.21021
  8.91114   4.00271  10.41059
  8.96120   6.23825  10.72289
  9.01126   8.58834  11.15285
  9.06133  10.44474  11.67574
  9.11139  11.22091  12.23749
  9.16145  10.64883  12.77060
  9.21151   8.92727  13.21752
  9.26158   6.61115  13.54849
  9.31164   4.32490  13.76500
  9.36170   2.49935  13.89013
  9.41176   1.27633  13.95403
  9.46183   0.57765  13.98294
  9.51189   0.23813  13.99487
  9.56195   0.11053  14.00040
  9.61202   0.11294  14.00605
  9.66208   0.23491  14.01781
  9.71214   0.52430  14.04406
  9.76220   1.05846  14.09705
  9.81227   1.89236  14.19179
  9.86233   2.98942  14.34144
  9.91239   4.17178  14.55029
  9.96245   5.14278  14.80776
 10.01252   5.60037  15.08812
     10.01251564     -30.03754693   801     -10.13856411       1.00000000; Z=  6; 2s 2p_y 2p_z 2p_x 
-30.03755   0.00000   0.00000   0.00000   0.00000
-29.98748   0.00000   0.00000   0.00000   0.00000
-29.93742   0.00000   0.00000   0.00000   0.00000
-29.88736   0.00000   0.00000   0.00000   0.00000
-29.83730   0.00000   0.00000   0.00000   0.00000
-29.78723   0.00000   0.00000   0.00000   0.00000
-29.73717   0.00000   0.00000   0.00000   0.00000
-29.68711   0.00000   0.00000   0.00000   0.00000
-29.63705   0.00000   0.00000   0.00000   0.00000
-29.58698   0.00000   0.00000   0.00000   0.00000
-29.53692   0.00000   0.00000   0.00000   0.00000
-29.48686   0.00000   0.00000   0.00000   0.00000
-29.43680   0.00000   0.00000   0.00000   0.00000
-29.38673   0.00000   0.00000   0.00000   0.00000
-29.33667   0.00000   0.00000   0.00000   0.00000
-29.28661   0.00000   0.00000   0.00000   0.00000
-29.23655   0.00000   0.00000   0.00000   0.00000
-29.18648   0.00000   0.00000   0.00000   0.00000
-29.13642   0.00000   0.00000   0.00000   0.00000
-29.08636   0.00000   0.00000   0.00000   0.00000
-29.03630   0.00000   0.00000   0.00000   0.00000
-28.98623   0.00000   0.00000   0.00000   0.00000
-28.93617   0.00000   0.00000   0.00000   0.00000
-28.88611   0.00000   0.00000   0.00000   0.00000
-28.83605   0.00000   0.00000   0.00000   0.00000
-28.78598   0.00000   0.00000   0.00000   0.00000
-28.73592   0.00000   0.00000   0.00000   0.00000
-28.68586   0.00000   0.00000   0.00000   0.00000
-28.63579   0.00000   0.00000   0.00000   0.00000
-28.58573   0.00000   0.00000   0.00000   0.00000
-28.53567   0.00000   0.00000   0.00000   0.00000
-28.48561   0.00000   0.00000   0.00000   0.00000
-28.43554   0.00000   0.00000   0.00000   0.00000
-28.38548   0.00000   0.00000   0.00000   0.00000
-28.33542   0.00000   0.00000   0.00000   0.00000
-28.28536   0.00000   0.00000   0.00000   0.00000
-28.23529   0.00000   0.00000   0.00000   0.00000
-28.18523   0.00000   0.00000   0.00000   0.00000
-28.13517   0.00000   0.00000   0.00000   0.00000
-28.08511   0.00000   0.00000   0.00000   0.00000
-28.03504   0.00000   0.00000   0.00000   0.00000
-27.98498   0.00000   0.00000   0.00000   0.00000
-27.93492   0.00000   0.00000   0.00000   0.00000
-27.88486   0.00000   0.00000   0.00000   0.00000
-27.83479   0.00000   0.00000   0.00000   0.00000
-27.78473   0.00000   0.00000   0.00000   0.00000
-27.73467   0.00000   0.00000   0.00000   0.00000
-27.68461   0.00000   0.00000   0.00000   0.00000
-27.63454   0.00000   0.00000   0.00000   0.00000
-27.58448   0.00000   0.00000   0.00000   0.00000
-27.53442   0.00000   0.00000   0.00000   0.00000
-27.48436   0.00000   0.00000   0.00000   0.00000
-27.43429   0.00000   0.00000   0.00000   0.00000
-27.38423   0.00000   0.00000   0.00000   0.00000
-27.33417   0.00000   0.00000   0.00000   0.00000
-27.28411   0.00000   0.00000   0.00000   0.00000
-27.23404   0.00000   0.00000   0.00000   0.00000
-27.18398   0.00000   0.00000   0.00000   0.00000
-27.13392   0.00000   0.00000   0.00000   0.00000
-27.08385   0.00000   0.00000   0.00000   0.00000
-27.03379   0.00000   0.00000   0.00000   0.00000
-26.98373   0.00000   0.00000   0.00000   0.00000
-26.93367   0.00000   0.00000   0.00000   0.00000
-26.88360   0.00000   0.00000   0.00000   0.00000
-26.83354   0.00000   0.00000   0.00000   0.00000
-26.78348   0.00000   0.00000   0.00000   0.00000
-26.73342   0.00000   0.00000   0.00000   0.00000
-26.68335   0.00000   0.00000   0.00000   0.00000
-26.63329   0.00000   0.00000   0.00000   0.00000
-26.58323   0.00000   0.00000   0.00000   0.00000
-26.53317   0.00000   0.00000   0.00000   0.00000
-26.48310   0.00000   0.00000   0.00000   0.00000
-26.43304   0.00000   0.00000   0.00000   0.00000
-26.38298   0.00000   0.00000   0.00000   0.00000
-26.33292   0.00000   0.00000   0.00000   0.00000
-26.28285   0.00000   0.00000   0.00000   0.00000
-26.23279   0.00000   0.00000   0.00000   0.00000
-26.18273   0.00000   0.00000   0.00000   0.00000
-26.13267   0.00000   0.00000   0.00000   0.00000
-26.08260   0.00000   0.00000   0.00000   0.00000
-26.03254   0.00000   0.00000   0.00000   0.00000
-25.98248   0.00000   0.00000   0.00000   0.00000
-25.93242   0.00000   0.00000   0.00000   0.00000
-25.88235   0.00000   0.00000   0.00000   0.00000
-25.83229   0.00000   0.00000   0.00000   0.00000
-25.78223   0.00000   0.00000   0.00000   0.00000
-25.73217   0.00000   0.00000   0.00000   0.00000
-25.68210   0.00000   0.00000   0.00000   0.00000
-25.63204   0.00000   0.00000   0.00000   0.00000
-25.58198   0.00000   0.00000   0.00000   0.00000
-25.53191   0.00000   0.00000   0.00000   0.00000
-25.48185   0.00000   0.00000   0.00000   0.00000
-25.43179   0.00000   0.00000   0.00000   0.00000
-25.38173   0.00000   0.00000   0.00000   0.00000
-25.33166   0.00000   0.00000   0.00000   0.00000
-25.28160   0.00000   0.00000   0.00000   0.00000
-25.23154   0.00000   0.00000   0.00000   0.00000
-25.18148   0.00000   0.00000   0.00000   0.00000
-25.13141   0.00000   0.00000   0.00000   0.00000
-25.08135   0.00000   0.00000   0.00000   0.00000
-25.03129   0.00000   0.00000   0.00000   0.00000
-24.98123   0.00000   0.00000   0.00000   0.00000
-24.93116   0.00000   0.00000   0.00000   0.00000
-24.88110   0.00000   0.00000   0.00000   0.00000
-24.83104   0.00000   0.00000   0.00000   0.00000
-24.78098   0.00000   0.00000   0.00000   0.00000
-24.73091   0.00000   0.00000   0.00000   0.00000
-24.68085   0.00000   0.00000   0.00000   0.00000
-24.63079   0.00000   0.00000   0.00000   0.00000
-24.58073   0.00000   0.00000   0.00000   0.00000
-24.53066   0.00000   0.00000   0.00000   0.00000