   2    2    1    1
  1.0000000e+03   1.0000000e-09   1.0000000e-09   1.0000000e-09   5.0000000e-16
            1.000000e-04
  CAR
 DOS and projected DOS file by LOBSTER. Energy is shifted such that the Fermi level lies at 0 eV. 
     -0.26565651     -40.31571908   801     -10.27817215       1.00000000
-30.03755   0.00000   0.00000
-29.98748   0.00000   0.00000
-29.93742   0.00000   0.00000
-29.88736   0.00000   0.00000
-29.83730   0.00000   0.00000
-29.78723   0.00000   0.00000
-29.73717   0.00000   0.00000
-29.68711   0.00000   0.00000
-29.63705   0.00000   0.00000
-29.58698   0.00000   0.00000
-29.53692   0.00000   0.00000
-29.48686   0.00000   0.00000
-29.43680   0.00000   0.00000
-29.38673   0.00000   0.00000
-29.33667   0.00000   0.00000
-29.28661   0.00000   0.00000
-29.23655   0.00000   0.00000
-29.18648   0.00000   0.00000
-29.13642   0.00000   0.00000
-29.08636   0.00000   0.00000
-29.03630   0.00000   0.00000
-28.98623   0.00000   0.00000
-28.93617   0.00000   0.00000
-28.88611   0.00000   0.00000
-28.83605   0.00000   0.00000
-28.78598   0.00000   0.00000
-28.73592   0.00000   0.00000
-28.68586   0.00000   0.00000
-28.63579   0.00000   0.00000
-28.58573   0.00000   0.00000
-28.53567   0.00000   0.00000
-28.48561   0.00000   0.00000
-28.43554   0.00000   0.00000
-28.38548   0.00000   0.00000
-28.33542   0.00000   0.00000
-28.28536   0.00000   0.00000
-28.23529   0.00000   0.00000
-28.18523   0.00000   0.00000
-28.13517   0.00000   0.00000
-28.08511   0.00000   0.00000
-28.03504   0.00000   0.00000
-27.98498   0.00000   0.00000
-27.93492   0.00000   0.00000
-27.88486   0.00000   0.00000
-27.83479   0.00000   0.00000
-27.78473   0.00000   0.00000
-27.73467   0.00000   0.00000
-27.68461   0.00000   0.00000
-27.63454   0.00000   0.00000
-27.58448   0.00000   0.00000
-27.53442   0.00000   0.00000
-27.48436   0.00000   0.00000
-27.43429   0.00000   0.00000
-27.38423   0.00000   0.00000
-27.33417   0.00000   0.00000
-27.28411   0.00000   0.00000
-27.23404   0.00000   0.00000
-27.18398   0.00000   0.00000
-27.13392   0.00000   0.00000
-27.08385   0.00000   0.00000
-27.03379   0.00000   0.00000
-26.98373   0.00000   0.00000
-26.93367   0.00000   0.00000
-26.88360   0.00000   0.00000
-26.83354   0.00000   0.00000
-26.78348   0.00000   0.00000
-26.73342   0.00000   0.00000
-26.68335   0.00000   0.00000
-26.63329   0.00000   0.00000
-26.58323   0.00000   0.00000
-26.53317   0.00000   0.00000
-26.48310   0.00000   0.00000
-26.43304   0.00000   0.00000
-26.38298   0.00000   0.00000
-26.33292   0.00000   0.00000
-26.28285   0.00000   0.00000
-26.23279   0.00000   0.00000
-26.18273   0.00000   0.00000
-26.13267   0.00000   0.00000
-26.08260   0.00000   0.00000
-26.03254   0.00000   0.00000
-25.98248   0.00000   0.00000
-25.93242   0.00000   0.00000
-25.88235   0.00000   0.00000
-25.83229   0.00000   0.00000
-25.78223   0.00000   0.00000
-25.73217   0.00000   0.00000
-25.68210   0.00000   0.00000
-25.63204   0.00000   0.00000
-25.58198   0.00000   0.00000
-25.53191   0.00000   0.00000
-25.48185   0.00000   0.00000
-25.43179   0.00000   0.00000
-25.38173   0.00000   0.00000
-25.33166   0.00000   0.00000
-25.28160   0.00000   0.00000
-25.23154   0.00000   0.00000
-25.18148   0.00000   0.00000
-25.13141   0.00000   0.00000
-25.08135   0.00000   0.00000
-25.03129   0.00000   0.00000
-24.98123   0.00000   0.00000
-24.93116   0.00000   0.00000
-24.88110   0.00000   0.00000
-24.83104   0.00000   0.00000
-24.78098   0.00000   0.00000
-24.73091   0.00000   0.00000
-24.68085   0.00000   0.00000
-24.63079   0.00000   0.00000
-24.58073   0.00000   0.00000
-24.53066   0.00000   0.00000
-24.48060   0.00000   0.00000
-24.43054   0.00000   0.00000
-24.38048   0.00000   0.00000
-24.33041   0.00000   0.00000
-24.28035   0.00000   0.00000
-24.23029   0.00000   0.00000
-24.18023   0.00000   0.00000
-24.13016   0.00000   0.00000
-24.08010   0.00000   0.00000
-24.03004   0.00000   0.00000
-23.97997   0.00000   0.00000
-23.92991   0.00000   0.00000
-23.87985   0.00000   0.00000
-23.82979   0.00000   0.00000
-23.77972   0.00000   0.00000
-23.72966   0.00000   0.00000
-23.67960   0.00000   0.00000
-23.62954   0.00000   0.00000
-23.57947   0.00000   0.00000
-23.52941   0.00000   0.00000
-23.47935   0.00000   0.00000
-23.42929   0.00000   0.00000
-23.37922   0.00000   0.00000
-23.32916   0.00000   0.00000
-23.27910   0.00000   0.00000
-23.22904   0.00000   0.00000
-23.17897   0.00000   0.00000
-23.12891   0.00000   0.00000
-23.07885   0.00000   0.00000
-23.02879   0.00000   0.00000
-22.97872   0.00000   0.00000
-22.92866   0.00000   0.00000
-22.87860   0.00000   0.00000
-22.82854   0.00000   0.00000
-22.77847   0.00000   0.00000
-22.72841   0.00000   0.00000
-22.67835   0.00000   0.00000
-22.62829   0.00000   0.00000
-22.57822   0.00000   0.00000
-22.52816   0.00000   0.00000
-22.47810   0.00000   0.00000
-22.42804   0.00000   0.00000
-22.37797   0.00000   0.00000
-22.32791   0.00000   0.00000
-22.27785   0.00000   0.00000
-22.22778   0.00002   0.00000
-22.17772   0.00009   0.00001
-22.12766   0.00043   0.00003
-22.07760   0.00187   0.00012
-22.02753   0.00720   0.00048
-21.97747   0.02448   0.00171
-21.92741   0.07348   0.00539
-21.87735   0.19483   0.01514
-21.82728   0.45630   0.03798
-21.77722   0.94400   0.08524
-21.72716   1.72516   0.17161
-21.67710   2.78498   0.31103
-21.62703   3.97149   0.50985
-21.57697   5.00293   0.76031
-21.52691   5.56721   1.03902
-21.47685   5.47260   1.31299
-21.42678   4.75218   1.55090
-21.37672   3.64531   1.73339
-21.32666   2.47011   1.85705
-21.27660   1.47854   1.93107
-21.22653   0.78178   1.97021
-21.17647   0.36515   1.98849
-21.12641   0.15065   1.99603
-21.07635   0.05490   1.99878
-21.02628   0.01767   1.99967
-20.97622   0.00503   1.99992
-20.92616   0.00126   1.99998
-20.87610   0.00028   2.00000
-20.82603   0.00005   2.00000
-20.77597   0.00001   2.00000
-20.72591   0.00000   2.00000
-20.67584   0.00000   2.00000
-20.62578   0.00000   2.00000
-20.57572   0.00000   2.00000
-20.52566   0.00000   2.00000
-20.47559   0.00000   2.00000
-20.42553   0.00000   2.00000
-20.37547   0.00000   2.00000
-20.32541   0.00000   2.00000
-20.27534   0.00000   2.00000
-20.22528   0.00000   2.00000
-20.17522   0.00000   2.00000
-20.12516   0.00000   2.00000
-20.07509   0.00000   2.00000
-20.02503   0.00000   2.00000
-19.97497   0.00000   2.00000
-19.92491   0.00000   2.00000
-19.87484   0.00000   2.00000
-19.82478   0.00000   2.00000
-19.77472   0.00000   2.00000
-19.72466   0.00000   2.00000
-19.67459   0.00000   2.00000
-19.62453   0.00000   2.00000
-19.57447   0.00000   2.00000
-19.52441   0.00000   2.00000
-19.47434   0.00000   2.00000
-19.42428   0.00000   2.00000
-19.37422   0.00000   2.00000
-19.32416   0.00000   2.00000
-19.27409   0.00000   2.00000
-19.22403   0.00000   2.00000
-19.17397   0.00000   2.00000
-19.12390   0.00000   2.00000
-19.07384   0.00000   2.00000
-19.02378   0.00000   2.00000
-18.97372   0.00000   2.00000
-18.92365   0.00000   2.00000
-18.87359   0.00000   2.00000
-18.82353   0.00000   2.00000
-18.77347   0.00000   2.00000
-18.72340   0.00000   2.00000
-18.67334   0.00000   2.00000
-18.62328   0.00000   2.00000
-18.57322   0.00000   2.00000
-18.52315   0.00000   2.00000
-18.47309   0.00000   2.00000
-18.42303   0.00000   2.00000
-18.37297   0.00000   2.00000
-18.32290   0.00000   2.00000
-18.27284   0.00000   2.00000
-18.22278   0.00000   2.00000
-18.17272   0.00000   2.00000
-18.12265   0.00000   2.00000
-18.07259   0.00000   2.00000
-18.02253   0.00000   2.00000
-17.97247   0.00000   2.00000
-17.92240   0.00000   2.00000
-17.87234   0.00000   2.00000
-17.82228   0.00000   2.00000
-17.77222   0.00000   2.00000
-17.72215   0.00000   2.00000
-17.67209   0.00000   2.00000
-17.62203   0.00000   2.00000
-17.57196   0.00000   2.00000
-17.52190   0.00000   2.00000
-17.47184   0.00000   2.00000
-17.42178   0.00000   2.00000
-17.37171   0.00000   2.00000
-17.32165   0.00000   2.00000
-17.27159   0.00000   2.00000
-17.22153   0.00000   2.00000
-17.17146   0.00000   2.00000
-17.12140   0.00000   2.00000
-17.07134   0.00000   2.00000
-17.02128   0.00000   2.00000
-16.97121   0.00000   2.00000
-16.92115   0.00000   2.00000
-16.87109   0.00000   2.00000
-16.82103   0.00000   2.00000
-16.77096   0.00000   2.00000
-16.72090   0.00000   2.00000
-16.67084   0.00000   2.00000
-16.62078   0.00000   2.00000
-16.57071   0.00000   2.00000
-16.52065   0.00000   2.00000
-16.47059   0.00000   2.00000
-16.42053   0.00000   2.00000
-16.37046   0.00000   2.00000
-16.32040   0.00000   2.00000
-16.27034   0.00000   2.00000
-16.22028   0.00000   2.00000
-16.17021   0.00000   2.00000
-16.12015   0.00000   2.00000
-16.07009   0.00000   2.00000
-16.02003   0.00000   2.00000
-15.96996   0.00000   2.00000
-15.91990   0.00000   2.00000
-15.86984   0.00000   2.00000
-15.81977   0.00000   2.00000
-15.76971   0.00000   2.00000
-15.71965   0.00000   2.00000
-15.66959   0.00000   2.00000
-15.61952   0.00000   2.00000
-15.56946   0.00000   2.00000
-15.51940   0.00000   2.00000
-15.46934   0.00000   2.00000
-15.41927   0.00000   2.00000
-15.36921   0.00000   2.00000
-15.31915   0.00000   2.00000
-15.26909   0.00000   2.00000
-15.21902   0.00000   2.00000
-15.16896   0.00000   2.00000
-15.11890   0.00000   2.00000
-15.06884   0.00000   2.00000
-15.01877   0.00000   2.00000
-14.96871   0.00000   2.00000
-14.91865   0.00000   2.00000
-14.86859   0.00000   2.00000
-14.81852   0.00000   2.00000
-14.76846   0.00000   2.00000
-14.71840   0.00000   2.00000
-14.66834   0.00000   2.00000
-14.61827   0.00000   2.00000
-14.56821   0.00000   2.00000
-14.51815   0.00000   2.00000
-14.46809   0.00000   2.00000
-14.41802   0.00000   2.00000
-14.36796   0.00000   2.00000
-14.31790   0.00000   2.00000
-14.26783   0.00000   2.00000
-14.21777   0.00000   2.00000
-14.16771   0.00000   2.00000
-14.11765   0.00000   2.00000
-14.06758   0.00000   2.00000
-14.01752   0.00000   2.00000
-13.96746   0.00000   2.00000
-13.91740   0.00000   2.00000
-13.86733   0.00000   2.00000
-13.81727   0.00000   2.00000
-13.76721   0.00000   2.00000
-13.71715   0.00000   2.00000
-13.66708   0.00000   2.00000
-13.61702   0.00000   2.00000
-13.56696   0.00000   2.00000
-13.51690   0.00000   2.00000
-13.46683   0.00000   2.00000
-13.41677   0.00000   2.00000
-13.36671   0.00000   2.00000
-13.31665   0.00000   2.00000
-13.26658   0.00000   2.00000
-13.21652   0.00000   2.00000
-13.16646   0.00000   2.00000
-13.11640   0.00000   2.00000
-13.06633   0.00000   2.00000
-13.01627   0.00000   2.00000
-12.96621   0.00000   2.00000
-12.91615   0.00000   2.00000
-12.86608   0.00000   2.00000
-12.81602   0.00000   2.00000
-12.76596   0.00000   2.00000
-12.71589   0.00000   2.00000
-12.66583   0.00000   2.00000
-12.61577   0.00000   2.00000
-12.56571   0.00000   2.00000
-12.51564   0.00000   2.00000
-12.46558   0.00000   2.00000
-12.41552   0.00000   2.00000
-12.36546   0.00000   2.00000
-12.31539   0.00000   2.00000
-12.26533   0.00000   2.00000
-12.21527   0.00000   2.00000
-12.16521   0.00000   2.00000
-12.11514   0.00000   2.00000
-12.06508   0.00000   2.00000
-12.01502   0.00000   2.00000
-11.96496   0.00000   2.00000
-11.91489   0.00000   2.00000
-11.86483   0.00000   2.00000
-11.81477   0.00000   2.00000
-11.76471   0.00000   2.00000
-11.71464   0.00000   2.00000
-11.66458   0.00000   2.00000
-11.61452   0.00000   2.00000
-11.56446   0.00000   2.00000
-11.51439   0.00000   2.00000
-11.46433   0.00000   2.00000
-11.41427   0.00000   2.00000
-11.36421   0.00000   2.00000
-11.31414   0.00000   2.00000
-11.26408   0.00000   2.00000
-11.21402   0.00000   2.00000
-11.16395   0.00000   2.00000
-11.11389   0.00000   2.00000
-11.06383   0.00000   2.00000
-11.01377   0.00000   2.00000
-10.96370   0.00000   2.00000
-10.91364   0.00000   2.00000
-10.86358   0.00000   2.00000
-10.81352   0.00000   2.00000
-10.76345   0.00000   2.00000
-10.71339   0.00000   2.00000
-10.66333   0.00000   2.00000
-10.61327   0.00000   2.00000
-10.56320   0.00000   2.00000
-10.51314   0.00000   2.00000
-10.46308   0.00000   2.00000
-10.41302   0.00000   2.00000
-10.36295   0.00000   2.00000
-10.31289   0.00000   2.00000
-10.26283   0.00000   2.00000
-10.21277   0.00000   2.00000
-10.16270   0.00000   2.00000
-10.11264   0.00000   2.00000
-10.06258   0.00000   2.00000
-10.01252   0.00000   2.00000
 -9.96245   0.00000   2.00000
 -9.91239   0.00000   2.00000
 -9.86233   0.00000   2.00000
 -9.81227   0.00000   2.00000
 -9.76220   0.00000   2.00000
 -9.71214   0.00000   2.00000
 -9.66208   0.00000   2.00000
 -9.61202   0.00000   2.00000
 -9.56195   0.00000   2.00000
 -9.51189   0.00000   2.00000
 -9.46183   0.00000   2.00000
 -9.41176   0.00000   2.00000
 -9.36170   0.00000   2.00000
 -9.31164   0.00000   2.00000
 -9.26158   0.00000   2.00000
 -9.21151   0.00000   2.00000
 -9.16145   0.00000   2.00000
 -9.11139   0.00000   2.00000
 -9.06133   0.00000   2.00000
 -9.01126   0.00000   2.00000
 -8.96120   0.00000   2.00000
 -8.91114   0.00000   2.00000
 -8.86108   0.00000   2.00000
 -8.81101   0.00000   2.00000
 -8.76095   0.00000   2.00000
 -8.71089   0.00000   2.00000
 -8.66083   0.00000   2.00000
 -8.61076   0.00000   2.00000
 -8.56070   0.00000   2.00000
 -8.51064   0.00000   2.00000
 -8.46058   0.00000   2.00000
 -8.41051   0.00000   2.00000
 -8.36045   0.00000   2.00000
 -8.31039   0.00000   2.00000
 -8.26033   0.00000   2.00000
 -8.21026   0.00000   2.00000
 -8.16020   0.00000   2.00000
 -8.11014   0.00000   2.00000
 -8.06008   0.00000   2.00000
 -8.01001   0.00000   2.00000
 -7.95995   0.00000   2.00000
 -7.90989   0.00000   2.00000
 -7.85982   0.00000   2.00000
 -7.80976   0.00000   2.00000
 -7.75970   0.00000   2.00000
 -7.70964   0.00000   2.00000
 -7.65957   0.00000   2.00000
 -7.60951   0.00000   2.00000
 -7.55945   0.00000   2.00000
 -7.50939   0.00000   2.00000
 -7.45932   0.00000   2.00000
 -7.40926   0.00000   2.00000
 -7.35920   0.00000   2.00000
 -7.30914   0.00000   2.00000
 -7.25907   0.00000   2.00000
 -7.20901   0.00000   2.00000
 -7.15895   0.00000   2.00000
 -7.10889   0.00000   2.00000
 -7.05882   0.00000   2.00000
 -7.00876   0.00000   2.00000
 -6.95870   0.00000   2.00000
 -6.90864   0.00000   2.00000
 -6.85857   0.00000   2.00000
 -6.80851   0.00000   2.00000
 -6.75845   0.00000   2.00000
 -6.70839   0.00000   2.00000
 -6.65832   0.00000   2.00000
 -6.60826   0.00000   2.00000
 -6.55820   0.00000   2.00000
 -6.50814   0.00000   2.00000
 -6.45807   0.00000   2.00000
 -6.40801   0.00000   2.00000
 -6.35795   0.00000   2.00000
 -6.30788   0.00000   2.00000
 -6.25782   0.00000   2.00000
 -6.20776   0.00000   2.00000
 -6.15770   0.00000   2.00000
 -6.10763   0.00000   2.00000
 -6.05757   0.00000   2.00000
 -6.00751   0.00001   2.00000
 -5.95745   0.00008   2.00000
 -5.90738   0.00038   2.00002
 -5.85732   0.00167   2.00011
 -5.80726   0.00649   2.00043
 -5.75720   0.02229   2.00155
 -5.70713   0.06757   2.00493
 -5.65707   0.18096   2.01399
 -5.60701   0.42808   2.03542
 -5.55695   0.89450   2.08020
 -5.50688   1.65109   2.16286
 -5.45682   2.69211   2.29763
 -5.40676   3.87751   2.49175
 -5.35670   4.93349   2.73874
 -5.30663   5.54494   3.01633
 -5.25657   5.50533   3.29194
 -5.20651   4.82850   3.53367
 -5.15645   3.74096   3.72095
 -5.10638   2.56032   3.84913
 -5.05632   1.54790   3.92662
 -5.00626   0.82666   3.96800
 -4.95620   0.38998   3.98753
 -4.90613   0.16251   3.99566
 -4.85607   0.05982   3.99866
 -4.80601   0.01945   3.99963
 -4.75594   0.00559   3.99991
 -4.70588   0.00142   3.99998
 -4.65582   0.00032   4.00000
 -4.60576   0.00006   4.00000
 -4.55569   0.00001   4.00000
 -4.50563   0.00000   4.00000
 -4.45557   0.00000   4.00000
 -4.40551   0.00000   4.00000
 -4.35544   0.00000   4.00000
 -4.30538   0.00000   4.00000
 -4.25532   0.00000   4.00000
 -4.20526   0.00000   4.00000
 -4.15519   0.00000   4.00000
 -4.10513   0.00000   4.00000
 -4.05507   0.00000   4.00000
 -4.00501   0.00000   4.00000
 -3.95494   0.00000   4.00000
 -3.90488   0.00000   4.00000
 -3.85482   0.00000   4.00000
 -3.80476   0.00000   4.00000
 -3.75469   0.00000   4.00000
 -3.70463   0.00000   4.00000
 -3.65457   0.00000   4.00000
 -3.60451   0.00000   4.00000
 -3.55444   0.00000   4.00000
 -3.50438   0.00000   4.00000
 -3.45432   0.00000   4.00000
 -3.40426   0.00001   4.00000
 -3.35419   0.00005   4.00000
 -3.30413   0.00028   4.00002
 -3.25407   0.00135   4.00009
 -3.20401   0.00568   4.00037
 -3.15394   0.02105   4.00142
 -3.10388   0.06893   4.00487
 -3.05382   0.19937   4.01486
 -3.00375   0.50934   4.04035
 -2.95369   1.14941   4.09790
 -2.90363   2.29124   4.21260
 -2.85357   4.03457   4.41458
 -2.80350   6.27565   4.72876
 -2.75344   8.62303   5.16045
 -2.70338  10.46653   5.68443
 -2.65332  11.22245   6.24626
 -2.60325  10.62957   6.77840
 -2.55319   8.89378   7.22365
 -2.50313   6.57353   7.55273
 -2.45307   4.29191   7.76760
 -2.40300   2.47536   7.89152
 -2.35294   1.26113   7.95466
 -2.30288   0.56755   7.98307
 -2.25282   0.22562   7.99436
 -2.20275   0.07923   7.99833
 -2.15269   0.02457   7.99956
 -2.10263   0.00673   7.99990
 -2.05257   0.00163   7.99998
 -2.00250   0.00035   8.00000
 -1.95244   0.00007   8.00000
 -1.90238   0.00001   8.00000
 -1.85232   0.00000   8.00000
 -1.80225   0.00000   8.00000
 -1.75219   0.00000   8.00000
 -1.70213   0.00000   8.00000
 -1.65207   0.00000   8.00000
 -1.60200   0.00000   8.00000
 -1.55194   0.00000   8.00000
 -1.50188   0.00000   8.00000
 -1.45181   0.00000   8.00000
 -1.40175   0.00000   8.00000
 -1.35169   0.00000   8.00000
 -1.30163   0.00000   8.00000
 -1.25156   0.00000   8.00000
 -1.20150   0.00000   8.00000
 -1.15144   0.00000   8.00000
 -1.10138   0.00000   8.00000
 -1.05131   0.00000   8.00000
 -1.00125   0.00000   8.00000
 -0.95119   0.00000   8.00000
 -0.90113   0.00000   8.00000
 -0.85106   0.00000   8.00000
 -0.80100   0.00000   8.00000
 -0.75094   0.00001   8.00000
 -0.70088   0.00005   8.00000
 -0.65081   0.00025   8.00002
 -0.60075   0.00115   8.00007
 -0.55069   0.00460   8.00030
 -0.50063   0.01632   8.00112
 -0.45056   0.05113   8.00368
 -0.40050   0.14145   8.01076
 -0.35044   0.34568   8.02807
 -0.30038   0.74620   8.06542
 -0.25031   1.42289   8.13666
 -0.20025   2.39674   8.25664
 -0.15019   3.56620   8.43518
 -0.10013   4.68740   8.66984
 -0.05006   5.44251   8.94231
  0.00000   5.58226   9.22177
  0.05006   5.05782   9.47498
  0.10013   4.04817   9.67764
  0.15019   2.86217   9.82093
  0.20025   1.78760   9.91042
  0.25031   0.98624   9.95979
  0.30038   0.48064   9.98385
  0.35044   0.20691   9.99421
  0.40050   0.07868   9.99815
  0.45056   0.02643   9.99947
  0.50063   0.00784   9.99987
  0.55069   0.00205   9.99997
  0.60075   0.00048   9.99999
  0.65081   0.00010  10.00000
  0.70088   0.00002  10.00000
  0.75094   0.00000  10.00000
  0.80100   0.00000  10.00000
  0.85106   0.00000  10.00000
  0.90113   0.00000  10.00000
  0.95119   0.00000  10.00000
  1.00125   0.00000  10.00000
  1.05131   0.00000  10.00000
  1.10138   0.00000  10.00000
  1.15144   0.00000  10.00000
  1.20150   0.00000  10.00000
  1.25156   0.00000  10.00000
  1.30163   0.00000  10.00000
  1.35169   0.00000  10.00000
  1.40175   0.00000  10.00000
  1.45181   0.00000  10.00000
  1.50188   0.00000  10.00000
  1.55194   0.00000  10.00000
  1.60200   0.00000  10.00000
  1.65207   0.00000  10.00000
  1.70213   0.00000  10.00000
  1.75219   0.00000  10.00000
  1.80225   0.00000  10.00000
  1.85232   0.00000  10.00000
  1.90238   0.00000  10.00000
  1.95244   0.00000  10.00000
  2.00250   0.00000  10.00000
  2.05257   0.00000  10.00000
  2.10263   0.00000  10.00000
  2.15269   0.00000  10.00000
  2.20275   0.00000  10.00000
  2.25282   0.00000  10.00000
  2.30288   0.00000  10.00000
  2.35294   0.00000  10.00000
  2.40300   0.00000  10.00000
  2.45307   0.00000  10.00000
  2.50313   0.00000  10.00000
  2.55319   0.00000  10.00000
  2.60325   0.00000  10.00000
  2.65332   0.00000  10.00000
  2.70338   0.00000  10.00000
  2.75344   0.00000  10.00000
  2.80350   0.00000  10.00000
  2.85357   0.00000  10.00000
  2.90363   0.00000  10.00000
  2.95369   0.00000  10.00000
  3.00375   0.00000  10.00000
  3.05382   0.00000  10.00000
  3.10388   0.00000  10.00000
  3.15394   0.00000  10.00000
  3.20401   0.00000  10.00000
  3.25407   0.00000  10.00000
  3.30413   0.00000  10.00000
  3.35419   0.00000  10.00000
  3.40426   0.00000  10.00000
  3.45432   0.00000  10.00000
  3.50438   0.00000  10.00000
  3.55444   0.00000  10.00000
  3.60451   0.00000  10.00000
  3.65457   0.00000  10.00000
  3.70463   0.00000  10.00000
  3.75469   0.00000  10.00000
  3.80476   0.00000  10.00000
  3.85482   0.00000  10.00000
  3.90488   0.00000  10.00000
  3.95494   0.00000  10.00000
  4.00501   0.00000  10.00000
  4.05507   0.00000  10.00000
  4.10513   0.00000  10.00000
  4.15519   0.00000  10.00000
  4.20526   0.00000  10.00000
  4.25532   0.00000  10.00000
  4.30538   0.00000  10.00000
  4.35544   0.00000  10.00000
  4.40551   0.00000  10.00000
  4.45557   0.00000  10.00000
  4.50563   0.00000  10.00000
  4.55569   0.00000  10.00000
  4.60576   0.00000  10.00000
  4.65582   0.00000  10.00000
  4.70588   0.00000  10.00000
  4.75594   0.00000  10.00000
  4.80601   0.00000  10.00000
  4.85607   0.00000  10.00000
  4.90613   0.00000  10.00000
  4.95620   0.00000  10.00000
  5.00626   0.00000  10.00000
  5.05632   0.00000  10.00000
  5.10638   0.00000  10.00000
  5.15645   0.00000  10.00000
  5.20651   0.00000  10.00000
  5.25657   0.00000  10.00000
  5.30663   0.00000  10.00000
  5.35670   0.00000  10.00000
  5.40676   0.00000  10.00000
  5.45682   0.00000  10.00000
  5.50688   0.00000  10.00000
  5.55695   0.00000  10.00000
  5.60701   0.00000  10.00000
  5.65707   0.00000  10.00000
  5.70713   0.00000  10.00000
  5.75720   0.00000  10.00000
  5.80726   0.00000  10.00000
  5.85732   0.00000  10.00000
  5.90738   0.00000  10.00000
  5.95745   0.00000  10.00000
  6.00751   0.00000  10.00000
  6.05757   0.00000  10.00000
  6.10763   0.00000  10.00000
  6.15770   0.00000  10.00000
  6.20776   0.00000  10.00000
  6.25782   0.00000  10.00000
  6.30788   0.00000  10.00000
  6.35795   0.00000  10.00000
  6.40801   0.00000  10.00000
  6.45807   0.00000  10.00000
  6.50814   0.00000  10.00000
  6.55820   0.00000  10.00000
  6.60826   0.00000  10.00000
  6.65832   0.00000  10.00000
  6.70839   0.00000  10.00000
  6.75845   0.00000  10.00000
  6.80851   0.00000  10.00000
  6.85857   0.00000  10.00000
  6.90864   0.00000  10.00000
  6.95870   0.00000  10.00000
  7.00876   0.00000  10.00000
  7.05882   0.00000  10.00000
  7.10889   0.00000  10.00000
  7.15895   0.00000  10.00000
  7.20901   0.00000  10.00000
  7.25907   0.00000  10.00000
  7.30914   0.00000  10.00000
  7.35920   0.00000  10.00000
  7.40926   0.00000  10.00000
  7.45932   0.00000  10.00000
  7.50939   0.00000  10.00000
  7.55945   0.00000  10.00000
  7.60951   0.00000  10.00000
  7.65957   0.00000  10.00000
  7.70964   0.00000  10.00000
  7.75970   0.00000  10.00000
  7.80976   0.00000  10.00000
  7.85982   0.00000  10.00000
  7.90989   0.00000  10.00000
  7.95995   0.00000  10.00000
  8.01001   0.00000  10.00000
  8.06008   0.00000  10.00000
  8.11014   0.00000  10.00000
  8.16020   0.00000  10.00000
  8.21026   0.00000  10.00000
  8.26033   0.00000  10.00000
  8.31039   0.00000  10.00000
  8.36045   0.00000  10.00000
  8.41051   0.00000  10.00000
  8.46058   0.00000  10.00000
  8.51064   0.00000  10.00000
  8.56070   0.00000  10.00000
  8.61076   0.00000  10.00000
  8.66083   0.00001  10.00000
  8.71089   0.00007  10.00000
  8.76095   0.00035  10.00002
  8.81101   0.00163  10.00010
  8.86108   0.00675  10.00044
  8.91114   0.02463  10.00167
  8.96120   0.07939  10.00565
  9.01126   0.22603  10.01696
  9.06133   0.56845  10.04542
  9.11139   1.26282  10.10864
  9.16145   2.47812  10.23270
  9.21151   4.29573  10.44776
  9.26158   6.57789  10.77706
  9.31164   8.89767  11.22250
  9.36170  10.63181  11.75476
  9.41176  11.22228  12.31658
  9.46183  10.46401  12.84043
  9.51189   8.61903  13.27192
  9.56195   6.27139  13.58589
  9.61202   4.03127  13.78770
  9.66208   2.29037  13.90236
  9.71214   1.15461  13.96017
  9.76220   0.53167  13.98678
  9.81227   0.26888  14.00024
  9.86233   0.25516  14.01302
  9.91239   0.46012  14.03605
  9.96245   0.91961  14.08209
 10.01252   1.68165  14.16628
     10.01251564     -30.03754693   801     -10.27817215       1.00000000; Z=  6; 2s 2p_y 2p_z 2p_x 
-30.03755   0.00000   0.00000   0.00000   0.00000
-29.98748   0.00000   0.00000   0.00000   0.00000
-29.93742   0.00000   0.00000   0.00000   0.00000
-29.88736   0.00000   0.00000   0.00000   0.00000
-29.83730   0.00000   0.00000   0.00000   0.00000
-29.78723   0.00000   0.00000   0.00000   0.00000
-29.73717   0.00000   0.00000   0.00000   0.00000
-29.68711   0.00000   0.00000   0.00000   0.00000
-29.63705   0.00000   0.00000   0.00000   0.00000
-29.58698   0.00000   0.00000   0.00000   0.00000
-29.53692   0.00000   0.00000   0.00000   0.00000
-29.48686   0.00000   0.00000   0.00000   0.00000
-29.43680   0.00000   0.00000   0.00000   0.00000
-29.38673   0.00000   0.00000   0.00000   0.00000
-29.33667   0.00000   0.00000   0.00000   0.00000
-29.28661   0.00000   0.00000   0.00000   0.00000
-29.23655   0.00000   0.00000   0.00000   0.00000
-29.18648   0.00000   0.00000   0.00000   0.00000
-29.13642   0.00000   0.00000   0.00000   0.00000
-29.08636   0.00000   0.00000   0.00000   0.00000
-29.03630   0.00000   0.00000   0.00000   0.00000
-28.98623   0.00000   0.00000   0.00000   0.00000
-28.93617   0.00000   0.00000   0.00000   0.00000
-28.88611   0.00000   0.00000   0.00000   0.00000
-28.83605   0.00000   0.00000   0.00000   0.00000
-28.78598   0.00000   0.00000   0.00000   0.00000
-28.73592   0.00000   0.00000   0.00000   0.00000
-28.68586   0.00000   0.00000   0.00000   0.00000
-28.63579   0.00000   0.00000   0.00000   0.00000
-28.58573   0.00000   0.00000   0.00000   0.00000
-28.53567   0.00000   0.00000   0.00000   0.00000
-28.48561   0.00000   0.00000   0.00000   0.00000
-28.43554   0.00000   0.00000   0.00000   0.00000
-28.38548   0.00000   0.00000   0.00000   0.00000
-28.33542   0.00000   0.00000   0.00000   0.00000
-28.28536   0.00000   0.00000   0.00000   0.00000
-28.23529   0.00000   0.00000   0.00000   0.00000
-28.18523   0.00000   0.00000   0.00000   0.00000
-28.13517   0.00000   0.00000   0.00000   0.00000
-28.08511   0.00000   0.00000   0.00000   0.00000
-28.03504   0.00000   0.00000   0.00000   0.00000
-27.98498   0.00000   0.00000   0.00000   0.00000
-27.93492   0.00000   0.00000   0.00000   0.00000
-27.88486   0.00000   0.00000   0.00000   0.00000
-27.83479   0.00000   0.00000   0.00000   0.00000
-27.78473   0.00000   0.00000   0.00000   0.00000
-27.73467   0.00000   0.00000   0.00000   0.00000
-27.68461   0.00000   0.00000   0.00000   0.00000
-27.63454   0.00000   0.00000   0.00000   0.00000
-27.58448   0.00000   0.00000   0.00000   0.00000
-27.53442   0.00000   0.00000   0.00000   0.00000
-27.48436   0.00000   0.00000   0.00000   0.00000
-27.43429   0.00000   0.00000   0.00000   0.00000
-27.38423   0.00000   0.00000   0.00000   0.00000
-27.33417   0.00000   0.00000   0.00000   0.00000
-27.28411   0.00000   0.00000   0.00000   0.00000
-27.23404   0.00000   0.00000   0.00000   0.00000
-27.18398   0.00000   0.00000   0.00000   0.00000
-27.13392   0.00000   0.00000   0.00000   0.00000
-27.08385   0.00000   0.00000   0.00000   0.00000
-27.03379   0.00000   0.00000   0.00000   0.00000
-26.98373   0.00000   0.00000   0.00000   0.00000
-26.93367   0.00000   0.00000   0.00000   0.00000
-26.88360   0.00000   0.00000   0.00000   0.00000
-26.83354   0.00000   0.00000   0.00000   0.00000
-26.78348   0.00000   0.00000   0.00000   0.00000
-26.73342   0.00000   0.00000   0.00000   0.00000
-26.68335   0.00000   0.00000   0.00000   0.00000
-26.63329   0.00000   0.00000   0.00000   0.00000
-26.58323   0.00000   0.00000   0.00000   0.00000
-26.53317   0.00000   0.00000   0.00000   0.00000
-26.48310   0.00000   0.00000   0.00000   0.00000
-26.43304   0.00000   0.00000   0.00000   0.00000
-26.38298   0.00000   0.00000   0.00000   0.00000
-26.33292   0.00000   0.00000   0.00000   0.00000
-26.28285   0.00000   0.00000   0.00000   0.00000
-26.23279   0.00000   0.00000   0.00000   0.00000
-26.18273   0.00000   0.00000   0.00000   0.00000
-26.13267   0.00000   0.00000   0.00000   0.00000
-26.08260   0.00000   0.00000   0.00000   0.00000
-26.03254   0.00000   0.00000   0.00000   0.00000
-25.98248   0.00000   0.00000   0.00000   0.00000
-25.93242   0.00000   0.00000   0.00000   0.00000
-25.88235   0.00000   0.00000   0.00000   0.00000
-25.83229   0.00000   0.00000   0.00000   0.00000
-25.78223   0.00000   0.00000   0.00000   0.00000
-25.73217   0.00000   0.00000   0.00000   0.00000
-25.68210   0.00000   0.00000   0.00000   0.00000
-25.63204   0.00000   0.00000   0.00000   0.00000
-25.58198   0.00000   0.00000   0.00000   0.00000
-25.53191   0.00000   0.00000   0.00000   0.00000
-25.48185   0.00000   0.00000   0.00000   0.00000
-25.43179   0.00000   0.00000   0.00000   0.00000
-25.38173   0.00000   0.00000   0.00000   0.00000
-25.33166   0.00000   0.00000   0.00000   0.00000
-25.28160   0.00000   0.00000   0.00000   0.00000
-25.23154   0.00000   0.00000   0.00000   0.00000
-25.18148   0.00000   0.00000   0.00000   0.00000
-25.13141   0.00000   0.00000   0.00000   0.00000
-25.08135   0.00000   0.00000   0.00000   0.00000
-25.03129   0.00000   0.00000   0.00000   0.00000
-24.98123   0.00000   0.00000   0.00000   0.00000
-24.93116   0.00000   0.00000   0.00000   0.00000
-24.88110   0.00000   0.00000   0.00000   0.00000
-24.83104   0.00000   0.00000   0.00000   0.00000
-24.78098   0.00000   0.00000   0.00000   0.00000
-24.73091   0.00000   0.00000   0.00000   0.00000
-24.68085   0.00000   0.00000   0.00000   0.00000
-24.63079   0.00000   0.00000   0.00000   0.00000
-24.58073   0.00000   0.00000   0.00000   0.00000
-24.53066   0.00000   0.00000   0.00000   0.00000