    2    2  100    1
  0.5000000E+03  0.1000000E-08  0.1000000E-08  0.1000000E-08  0.5000000E-15
   1.0000000000000000E-004
  CAR 
 CO                                      
     10      1     10

  0.1262379E-14  0.1262379E-14  0.1262379E-14  0.1000000E+01
    1      -31.811965   1.000000
    2      -15.587662   1.000000
    3      -12.953363   1.000000
    4      -12.953358   1.000000
    5      -10.317995   1.000000
    6       -0.894753   0.000000
    7       -0.894474   0.000000
    8       -0.069878   0.000000
    9        1.250737   0.000000
   10        1.393575   0.000000
